+ 2 /NodeList/0/DeviceList/0/$ns3::PointToPointNetDevice/TxQueue/Enqueue ns3::PppHeader (Point-to-Point Protocol: IP (0x0021)) ns3::Ipv4Header (tos 0x0 DSCP Default ECN Not-ECT ttl 64 id 0 protocol 17 offset (bytes) 0 flags [none] length: 284 10.1.1.1 > 10.1.5.1) ns3::UdpHeader (length: 264 49153 > 9) Payload (size=256)
- 2 /NodeList/0/DeviceList/0/$ns3::PointToPointNetDevice/TxQueue/Dequeue ns3::PppHeader (Point-to-Point Protocol: IP (0x0021)) ns3::Ipv4Header (tos 0x0 DSCP Default ECN Not-ECT ttl 64 id 0 protocol 17 offset (bytes) 0 flags [none] length: 284 10.1.1.1 > 10.1.5.1) ns3::UdpHeader (length: 264 49153 > 9) Payload (size=256)
d 2.00123 /NodeList/7/DeviceList/0/$ns3::PointToPointNetDevice/PhyRxDrop ns3::PppHeader (Point-to-Point Protocol: IP (0x0021)) ns3::Ipv4Header (tos 0x0 DSCP Default ECN Not-ECT ttl 64 id 0 protocol 17 offset (bytes) 0 flags [none] length: 284 10.1.1.1 > 10.1.5.1) ns3::UdpHeader (length: 264 49153 > 9) Payload (size=256)
+ 2.5 /NodeList/0/DeviceList/0/$ns3::PointToPointNetDevice/TxQueue/Enqueue ns3::PppHeader (Point-to-Point Protocol: IP (0x0021)) ns3::Ipv4Header (tos 0x0 DSCP Default ECN Not-ECT ttl 64 id 1 protocol 17 offset (bytes) 0 flags [none] length: 284 10.1.1.1 > 10.1.5.1) ns3::UdpHeader (length: 264 49153 > 9) Payload (size=256)
- 2.5 /NodeList/0/DeviceList/0/$ns3::PointToPointNetDevice/TxQueue/Dequeue ns3::PppHeader (Point-to-Point Protocol: IP (0x0021)) ns3::Ipv4Header (tos 0x0 DSCP Default ECN Not-ECT ttl 64 id 1 protocol 17 offset (bytes) 0 flags [none] length: 284 10.1.1.1 > 10.1.5.1) ns3::UdpHeader (length: 264 49153 > 9) Payload (size=256)
d 2.50123 /NodeList/7/DeviceList/0/$ns3::PointToPointNetDevice/PhyRxDrop ns3::PppHeader (Point-to-Point Protocol: IP (0x0021)) ns3::Ipv4Header (tos 0x0 DSCP Default ECN Not-ECT ttl 64 id 1 protocol 17 offset (bytes) 0 flags [none] length: 284 10.1.1.1 > 10.1.5.1) ns3::UdpHeader (length: 264 49153 > 9) Payload (size=256)
+ 3 /NodeList/0/DeviceList/0/$ns3::PointToPointNetDevice/TxQueue/Enqueue ns3::PppHeader (Point-to-Point Protocol: IP (0x0021)) ns3::Ipv4Header (tos 0x0 DSCP Default ECN Not-ECT ttl 64 id 2 protocol 17 offset (bytes) 0 flags [none] length: 284 10.1.1.1 > 10.1.5.1) ns3::UdpHeader (length: 264 49153 > 9) Payload (size=256)
- 3 /NodeList/0/DeviceList/0/$ns3::PointToPointNetDevice/TxQueue/Dequeue ns3::PppHeader (Point-to-Point Protocol: IP (0x0021)) ns3::Ipv4Header (tos 0x0 DSCP Default ECN Not-ECT ttl 64 id 2 protocol 17 offset (bytes) 0 flags [none] length: 284 10.1.1.1 > 10.1.5.1) ns3::UdpHeader (length: 264 49153 > 9) Payload (size=256)
d 3.00123 /NodeList/7/DeviceList/0/$ns3::PointToPointNetDevice/PhyRxDrop ns3::PppHeader (Point-to-Point Protocol: IP (0x0021)) ns3::Ipv4Header (tos 0x0 DSCP Default ECN Not-ECT ttl 64 id 2 protocol 17 offset (bytes) 0 flags [none] length: 284 10.1.1.1 > 10.1.5.1) ns3::UdpHeader (length: 264 49153 > 9) Payload (size=256)
+ 3.5 /NodeList/0/DeviceList/0/$ns3::PointToPointNetDevice/TxQueue/Enqueue ns3::PppHeader (Point-to-Point Protocol: IP (0x0021)) ns3::Ipv4Header (tos 0x0 DSCP Default ECN Not-ECT ttl 64 id 3 protocol 17 offset (bytes) 0 flags [none] length: 284 10.1.1.1 > 10.1.5.1) ns3::UdpHeader (length: 264 49153 > 9) Payload (size=256)
- 3.5 /NodeList/0/DeviceList/0/$ns3::PointToPointNetDevice/TxQueue/Dequeue ns3::PppHeader (Point-to-Point Protocol: IP (0x0021)) ns3::Ipv4Header (tos 0x0 DSCP Default ECN Not-ECT ttl 64 id 3 protocol 17 offset (bytes) 0 flags [none] length: 284 10.1.1.1 > 10.1.5.1) ns3::UdpHeader (length: 264 49153 > 9) Payload (size=256)
d 3.50123 /NodeList/7/DeviceList/0/$ns3::PointToPointNetDevice/PhyRxDrop ns3::PppHeader (Point-to-Point Protocol: IP (0x0021)) ns3::Ipv4Header (tos 0x0 DSCP Default ECN Not-ECT ttl 64 id 3 protocol 17 offset (bytes) 0 flags [none] length: 284 10.1.1.1 > 10.1.5.1) ns3::UdpHeader (length: 264 49153 > 9) Payload (size=256)
+ 4 /NodeList/0/DeviceList/0/$ns3::PointToPointNetDevice/TxQueue/Enqueue ns3::PppHeader (Point-to-Point Protocol: IP (0x0021)) ns3::Ipv4Header (tos 0x0 DSCP Default ECN Not-ECT ttl 64 id 4 protocol 17 offset (bytes) 0 flags [none] length: 284 10.1.1.1 > 10.1.5.1) ns3::UdpHeader (length: 264 49153 > 9) Payload (size=256)
- 4 /NodeList/0/DeviceList/0/$ns3::PointToPointNetDevice/TxQueue/Dequeue ns3::PppHeader (Point-to-Point Protocol: IP (0x0021)) ns3::Ipv4Header (tos 0x0 DSCP Default ECN Not-ECT ttl 64 id 4 protocol 17 offset (bytes) 0 flags [none] length: 284 10.1.1.1 > 10.1.5.1) ns3::UdpHeader (length: 264 49153 > 9) Payload (size=256)
d 4.00123 /NodeList/7/DeviceList/0/$ns3::PointToPointNetDevice/PhyRxDrop ns3::PppHeader (Point-to-Point Protocol: IP (0x0021)) ns3::Ipv4Header (tos 0x0 DSCP Default ECN Not-ECT ttl 64 id 4 protocol 17 offset (bytes) 0 flags [none] length: 284 10.1.1.1 > 10.1.5.1) ns3::UdpHeader (length: 264 49153 > 9) Payload (size=256)
+ 4.5 /NodeList/0/DeviceList/0/$ns3::PointToPointNetDevice/TxQueue/Enqueue ns3::PppHeader (Point-to-Point Protocol: IP (0x0021)) ns3::Ipv4Header (tos 0x0 DSCP Default ECN Not-ECT ttl 64 id 5 protocol 17 offset (bytes) 0 flags [none] length: 284 10.1.1.1 > 10.1.5.1) ns3::UdpHeader (length: 264 49153 > 9) Payload (size=256)
- 4.5 /NodeList/0/DeviceList/0/$ns3::PointToPointNetDevice/TxQueue/Dequeue ns3::PppHeader (Point-to-Point Protocol: IP (0x0021)) ns3::Ipv4Header (tos 0x0 DSCP Default ECN Not-ECT ttl 64 id 5 protocol 17 offset (bytes) 0 flags [none] length: 284 10.1.1.1 > 10.1.5.1) ns3::UdpHeader (length: 264 49153 > 9) Payload (size=256)
r 4.50123 /NodeList/7/DeviceList/0/$ns3::PointToPointNetDevice/MacRx ns3::PppHeader (Point-to-Point Protocol: IP (0x0021)) ns3::Ipv4Header (tos 0x0 DSCP Default ECN Not-ECT ttl 64 id 5 protocol 17 offset (bytes) 0 flags [none] length: 284 10.1.1.1 > 10.1.5.1) ns3::UdpHeader (length: 264 49153 > 9) Payload (size=256)
+ 4.50123 /NodeList/7/DeviceList/2/$ns3::PointToPointNetDevice/TxQueue/Enqueue ns3::PppHeader (Point-to-Point Protocol: IP (0x0021)) ns3::Ipv4Header (tos 0x0 DSCP Default ECN Not-ECT ttl 63 id 5 protocol 17 offset (bytes) 0 flags [none] length: 284 10.1.1.1 > 10.1.5.1) ns3::UdpHeader (length: 264 49153 > 9) Payload (size=256)
- 4.50123 /NodeList/7/DeviceList/2/$ns3::PointToPointNetDevice/TxQueue/Dequeue ns3::PppHeader (Point-to-Point Protocol: IP (0x0021)) ns3::Ipv4Header (tos 0x0 DSCP Default ECN Not-ECT ttl 63 id 5 protocol 17 offset (bytes) 0 flags [none] length: 284 10.1.1.1 > 10.1.5.1) ns3::UdpHeader (length: 264 49153 > 9) Payload (size=256)
d 4.50234 /NodeList/8/DeviceList/2/$ns3::PointToPointNetDevice/PhyRxDrop ns3::PppHeader (Point-to-Point Protocol: IP (0x0021)) ns3::Ipv4Header (tos 0x0 DSCP Default ECN Not-ECT ttl 63 id 5 protocol 17 offset (bytes) 0 flags [none] length: 284 10.1.1.1 > 10.1.5.1) ns3::UdpHeader (length: 264 49153 > 9) Payload (size=256)
+ 5 /NodeList/0/DeviceList/0/$ns3::PointToPointNetDevice/TxQueue/Enqueue ns3::PppHeader (Point-to-Point Protocol: IP (0x0021)) ns3::Ipv4Header (tos 0x0 DSCP Default ECN Not-ECT ttl 64 id 6 protocol 17 offset (bytes) 0 flags [none] length: 284 10.1.1.1 > 10.1.5.1) ns3::UdpHeader (length: 264 49153 > 9) Payload (size=256)
- 5 /NodeList/0/DeviceList/0/$ns3::PointToPointNetDevice/TxQueue/Dequeue ns3::PppHeader (Point-to-Point Protocol: IP (0x0021)) ns3::Ipv4Header (tos 0x0 DSCP Default ECN Not-ECT ttl 64 id 6 protocol 17 offset (bytes) 0 flags [none] length: 284 10.1.1.1 > 10.1.5.1) ns3::UdpHeader (length: 264 49153 > 9) Payload (size=256)
d 5.00123 /NodeList/7/DeviceList/0/$ns3::PointToPointNetDevice/PhyRxDrop ns3::PppHeader (Point-to-Point Protocol: IP (0x0021)) ns3::Ipv4Header (tos 0x0 DSCP Default ECN Not-ECT ttl 64 id 6 protocol 17 offset (bytes) 0 flags [none] length: 284 10.1.1.1 > 10.1.5.1) ns3::UdpHeader (length: 264 49153 > 9) Payload (size=256)
+ 5.5 /NodeList/0/DeviceList/0/$ns3::PointToPointNetDevice/TxQueue/Enqueue ns3::PppHeader (Point-to-Point Protocol: IP (0x0021)) ns3::Ipv4Header (tos 0x0 DSCP Default ECN Not-ECT ttl 64 id 7 protocol 17 offset (bytes) 0 flags [none] length: 284 10.1.1.1 > 10.1.5.1) ns3::UdpHeader (length: 264 49153 > 9) Payload (size=256)
- 5.5 /NodeList/0/DeviceList/0/$ns3::PointToPointNetDevice/TxQueue/Dequeue ns3::PppHeader (Point-to-Point Protocol: IP (0x0021)) ns3::Ipv4Header (tos 0x0 DSCP Default ECN Not-ECT ttl 64 id 7 protocol 17 offset (bytes) 0 flags [none] length: 284 10.1.1.1 > 10.1.5.1) ns3::UdpHeader (length: 264 49153 > 9) Payload (size=256)
d 5.50123 /NodeList/7/DeviceList/0/$ns3::PointToPointNetDevice/PhyRxDrop ns3::PppHeader (Point-to-Point Protocol: IP (0x0021)) ns3::Ipv4Header (tos 0x0 DSCP Default ECN Not-ECT ttl 64 id 7 protocol 17 offset (bytes) 0 flags [none] length: 284 10.1.1.1 > 10.1.5.1) ns3::UdpHeader (length: 264 49153 > 9) Payload (size=256)
+ 6 /NodeList/0/DeviceList/0/$ns3::PointToPointNetDevice/TxQueue/Enqueue ns3::PppHeader (Point-to-Point Protocol: IP (0x0021)) ns3::Ipv4Header (tos 0x0 DSCP Default ECN Not-ECT ttl 64 id 8 protocol 17 offset (bytes) 0 flags [none] length: 284 10.1.1.1 > 10.1.5.1) ns3::UdpHeader (length: 264 49153 > 9) Payload (size=256)
- 6 /NodeList/0/DeviceList/0/$ns3::PointToPointNetDevice/TxQueue/Dequeue ns3::PppHeader (Point-to-Point Protocol: IP (0x0021)) ns3::Ipv4Header (tos 0x0 DSCP Default ECN Not-ECT ttl 64 id 8 protocol 17 offset (bytes) 0 flags [none] length: 284 10.1.1.1 > 10.1.5.1) ns3::UdpHeader (length: 264 49153 > 9) Payload (size=256)
d 6.00123 /NodeList/7/DeviceList/0/$ns3::PointToPointNetDevice/PhyRxDrop ns3::PppHeader (Point-to-Point Protocol: IP (0x0021)) ns3::Ipv4Header (tos 0x0 DSCP Default ECN Not-ECT ttl 64 id 8 protocol 17 offset (bytes) 0 flags [none] length: 284 10.1.1.1 > 10.1.5.1) ns3::UdpHeader (length: 264 49153 > 9) Payload (size=256)
+ 6.5 /NodeList/0/DeviceList/0/$ns3::PointToPointNetDevice/TxQueue/Enqueue ns3::PppHeader (Point-to-Point Protocol: IP (0x0021)) ns3::Ipv4Header (tos 0x0 DSCP Default ECN Not-ECT ttl 64 id 9 protocol 17 offset (bytes) 0 flags [none] length: 284 10.1.1.1 > 10.1.5.1) ns3::UdpHeader (length: 264 49153 > 9) Payload (size=256)
- 6.5 /NodeList/0/DeviceList/0/$ns3::PointToPointNetDevice/TxQueue/Dequeue ns3::PppHeader (Point-to-Point Protocol: IP (0x0021)) ns3::Ipv4Header (tos 0x0 DSCP Default ECN Not-ECT ttl 64 id 9 protocol 17 offset (bytes) 0 flags [none] length: 284 10.1.1.1 > 10.1.5.1) ns3::UdpHeader (length: 264 49153 > 9) Payload (size=256)
d 6.50123 /NodeList/7/DeviceList/0/$ns3::PointToPointNetDevice/PhyRxDrop ns3::PppHeader (Point-to-Point Protocol: IP (0x0021)) ns3::Ipv4Header (tos 0x0 DSCP Default ECN Not-ECT ttl 64 id 9 protocol 17 offset (bytes) 0 flags [none] length: 284 10.1.1.1 > 10.1.5.1) ns3::UdpHeader (length: 264 49153 > 9) Payload (size=256)
+ 7 /NodeList/0/DeviceList/0/$ns3::PointToPointNetDevice/TxQueue/Enqueue ns3::PppHeader (Point-to-Point Protocol: IP (0x0021)) ns3::Ipv4Header (tos 0x0 DSCP Default ECN Not-ECT ttl 64 id 10 protocol 17 offset (bytes) 0 flags [none] length: 284 10.1.1.1 > 10.1.5.1) ns3::UdpHeader (length: 264 49153 > 9) Payload (size=256)
- 7 /NodeList/0/DeviceList/0/$ns3::PointToPointNetDevice/TxQueue/Dequeue ns3::PppHeader (Point-to-Point Protocol: IP (0x0021)) ns3::Ipv4Header (tos 0x0 DSCP Default ECN Not-ECT ttl 64 id 10 protocol 17 offset (bytes) 0 flags [none] length: 284 10.1.1.1 > 10.1.5.1) ns3::UdpHeader (length: 264 49153 > 9) Payload (size=256)
d 7.00123 /NodeList/7/DeviceList/0/$ns3::PointToPointNetDevice/PhyRxDrop ns3::PppHeader (Point-to-Point Protocol: IP (0x0021)) ns3::Ipv4Header (tos 0x0 DSCP Default ECN Not-ECT ttl 64 id 10 protocol 17 offset (bytes) 0 flags [none] length: 284 10.1.1.1 > 10.1.5.1) ns3::UdpHeader (length: 264 49153 > 9) Payload (size=256)
+ 7.5 /NodeList/0/DeviceList/0/$ns3::PointToPointNetDevice/TxQueue/Enqueue ns3::PppHeader (Point-to-Point Protocol: IP (0x0021)) ns3::Ipv4Header (tos 0x0 DSCP Default ECN Not-ECT ttl 64 id 11 protocol 17 offset (bytes) 0 flags [none] length: 284 10.1.1.1 > 10.1.5.1) ns3::UdpHeader (length: 264 49153 > 9) Payload (size=256)
- 7.5 /NodeList/0/DeviceList/0/$ns3::PointToPointNetDevice/TxQueue/Dequeue ns3::PppHeader (Point-to-Point Protocol: IP (0x0021)) ns3::Ipv4Header (tos 0x0 DSCP Default ECN Not-ECT ttl 64 id 11 protocol 17 offset (bytes) 0 flags [none] length: 284 10.1.1.1 > 10.1.5.1) ns3::UdpHeader (length: 264 49153 > 9) Payload (size=256)
d 7.50123 /NodeList/7/DeviceList/0/$ns3::PointToPointNetDevice/PhyRxDrop ns3::PppHeader (Point-to-Point Protocol: IP (0x0021)) ns3::Ipv4Header (tos 0x0 DSCP Default ECN Not-ECT ttl 64 id 11 protocol 17 offset (bytes) 0 flags [none] length: 284 10.1.1.1 > 10.1.5.1) ns3::UdpHeader (length: 264 49153 > 9) Payload (size=256)
+ 8 /NodeList/0/DeviceList/0/$ns3::PointToPointNetDevice/TxQueue/Enqueue ns3::PppHeader (Point-to-Point Protocol: IP (0x0021)) ns3::Ipv4Header (tos 0x0 DSCP Default ECN Not-ECT ttl 64 id 12 protocol 17 offset (bytes) 0 flags [none] length: 284 10.1.1.1 > 10.1.5.1) ns3::UdpHeader (length: 264 49153 > 9) Payload (size=256)
- 8 /NodeList/0/DeviceList/0/$ns3::PointToPointNetDevice/TxQueue/Dequeue ns3::PppHeader (Point-to-Point Protocol: IP (0x0021)) ns3::Ipv4Header (tos 0x0 DSCP Default ECN Not-ECT ttl 64 id 12 protocol 17 offset (bytes) 0 flags [none] length: 284 10.1.1.1 > 10.1.5.1) ns3::UdpHeader (length: 264 49153 > 9) Payload (size=256)
d 8.00123 /NodeList/7/DeviceList/0/$ns3::PointToPointNetDevice/PhyRxDrop ns3::PppHeader (Point-to-Point Protocol: IP (0x0021)) ns3::Ipv4Header (tos 0x0 DSCP Default ECN Not-ECT ttl 64 id 12 protocol 17 offset (bytes) 0 flags [none] length: 284 10.1.1.1 > 10.1.5.1) ns3::UdpHeader (length: 264 49153 > 9) Payload (size=256)
+ 8.5 /NodeList/0/DeviceList/0/$ns3::PointToPointNetDevice/TxQueue/Enqueue ns3::PppHeader (Point-to-Point Protocol: IP (0x0021)) ns3::Ipv4Header (tos 0x0 DSCP Default ECN Not-ECT ttl 64 id 13 protocol 17 offset (bytes) 0 flags [none] length: 284 10.1.1.1 > 10.1.5.1) ns3::UdpHeader (length: 264 49153 > 9) Payload (size=256)
- 8.5 /NodeList/0/DeviceList/0/$ns3::PointToPointNetDevice/TxQueue/Dequeue ns3::PppHeader (Point-to-Point Protocol: IP (0x0021)) ns3::Ipv4Header (tos 0x0 DSCP Default ECN Not-ECT ttl 64 id 13 protocol 17 offset (bytes) 0 flags [none] length: 284 10.1.1.1 > 10.1.5.1) ns3::UdpHeader (length: 264 49153 > 9) Payload (size=256)
d 8.50123 /NodeList/7/DeviceList/0/$ns3::PointToPointNetDevice/PhyRxDrop ns3::PppHeader (Point-to-Point Protocol: IP (0x0021)) ns3::Ipv4Header (tos 0x0 DSCP Default ECN Not-ECT ttl 64 id 13 protocol 17 offset (bytes) 0 flags [none] length: 284 10.1.1.1 > 10.1.5.1) ns3::UdpHeader (length: 264 49153 > 9) Payload (size=256)
+ 9 /NodeList/0/DeviceList/0/$ns3::PointToPointNetDevice/TxQueue/Enqueue ns3::PppHeader (Point-to-Point Protocol: IP (0x0021)) ns3::Ipv4Header (tos 0x0 DSCP Default ECN Not-ECT ttl 64 id 14 protocol 17 offset (bytes) 0 flags [none] length: 284 10.1.1.1 > 10.1.5.1) ns3::UdpHeader (length: 264 49153 > 9) Payload (size=256)
- 9 /NodeList/0/DeviceList/0/$ns3::PointToPointNetDevice/TxQueue/Dequeue ns3::PppHeader (Point-to-Point Protocol: IP (0x0021)) ns3::Ipv4Header (tos 0x0 DSCP Default ECN Not-ECT ttl 64 id 14 protocol 17 offset (bytes) 0 flags [none] length: 284 10.1.1.1 > 10.1.5.1) ns3::UdpHeader (length: 264 49153 > 9) Payload (size=256)
d 9.00123 /NodeList/7/DeviceList/0/$ns3::PointToPointNetDevice/PhyRxDrop ns3::PppHeader (Point-to-Point Protocol: IP (0x0021)) ns3::Ipv4Header (tos 0x0 DSCP Default ECN Not-ECT ttl 64 id 14 protocol 17 offset (bytes) 0 flags [none] length: 284 10.1.1.1 > 10.1.5.1) ns3::UdpHeader (length: 264 49153 > 9) Payload (size=256)
+ 9.5 /NodeList/0/DeviceList/0/$ns3::PointToPointNetDevice/TxQueue/Enqueue ns3::PppHeader (Point-to-Point Protocol: IP (0x0021)) ns3::Ipv4Header (tos 0x0 DSCP Default ECN Not-ECT ttl 64 id 15 protocol 17 offset (bytes) 0 flags [none] length: 284 10.1.1.1 > 10.1.5.1) ns3::UdpHeader (length: 264 49153 > 9) Payload (size=256)
- 9.5 /NodeList/0/DeviceList/0/$ns3::PointToPointNetDevice/TxQueue/Dequeue ns3::PppHeader (Point-to-Point Protocol: IP (0x0021)) ns3::Ipv4Header (tos 0x0 DSCP Default ECN Not-ECT ttl 64 id 15 protocol 17 offset (bytes) 0 flags [none] length: 284 10.1.1.1 > 10.1.5.1) ns3::UdpHeader (length: 264 49153 > 9) Payload (size=256)
d 9.50123 /NodeList/7/DeviceList/0/$ns3::PointToPointNetDevice/PhyRxDrop ns3::PppHeader (Point-to-Point Protocol: IP (0x0021)) ns3::Ipv4Header (tos 0x0 DSCP Default ECN Not-ECT ttl 64 id 15 protocol 17 offset (bytes) 0 flags [none] length: 284 10.1.1.1 > 10.1.5.1) ns3::UdpHeader (length: 264 49153 > 9) Payload (size=256)
+ 10 /NodeList/0/DeviceList/0/$ns3::PointToPointNetDevice/TxQueue/Enqueue ns3::PppHeader (Point-to-Point Protocol: IP (0x0021)) ns3::Ipv4Header (tos 0x0 DSCP Default ECN Not-ECT ttl 64 id 16 protocol 17 offset (bytes) 0 flags [none] length: 284 10.1.1.1 > 10.1.5.1) ns3::UdpHeader (length: 264 49153 > 9) Payload (size=256)
- 10 /NodeList/0/DeviceList/0/$ns3::PointToPointNetDevice/TxQueue/Dequeue ns3::PppHeader (Point-to-Point Protocol: IP (0x0021)) ns3::Ipv4Header (tos 0x0 DSCP Default ECN Not-ECT ttl 64 id 16 protocol 17 offset (bytes) 0 flags [none] length: 284 10.1.1.1 > 10.1.5.1) ns3::UdpHeader (length: 264 49153 > 9) Payload (size=256)
r 10.0012 /NodeList/7/DeviceList/0/$ns3::PointToPointNetDevice/MacRx ns3::PppHeader (Point-to-Point Protocol: IP (0x0021)) ns3::Ipv4Header (tos 0x0 DSCP Default ECN Not-ECT ttl 64 id 16 protocol 17 offset (bytes) 0 flags [none] length: 284 10.1.1.1 > 10.1.5.1) ns3::UdpHeader (length: 264 49153 > 9) Payload (size=256)
+ 10.0012 /NodeList/7/DeviceList/2/$ns3::PointToPointNetDevice/TxQueue/Enqueue ns3::PppHeader (Point-to-Point Protocol: IP (0x0021)) ns3::Ipv4Header (tos 0x0 DSCP Default ECN Not-ECT ttl 63 id 16 protocol 17 offset (bytes) 0 flags [none] length: 284 10.1.1.1 > 10.1.5.1) ns3::UdpHeader (length: 264 49153 > 9) Payload (size=256)
- 10.0012 /NodeList/7/DeviceList/2/$ns3::PointToPointNetDevice/TxQueue/Dequeue ns3::PppHeader (Point-to-Point Protocol: IP (0x0021)) ns3::Ipv4Header (tos 0x0 DSCP Default ECN Not-ECT ttl 63 id 16 protocol 17 offset (bytes) 0 flags [none] length: 284 10.1.1.1 > 10.1.5.1) ns3::UdpHeader (length: 264 49153 > 9) Payload (size=256)
r 10.0023 /NodeList/8/DeviceList/2/$ns3::PointToPointNetDevice/MacRx ns3::PppHeader (Point-to-Point Protocol: IP (0x0021)) ns3::Ipv4Header (tos 0x0 DSCP Default ECN Not-ECT ttl 63 id 16 protocol 17 offset (bytes) 0 flags [none] length: 284 10.1.1.1 > 10.1.5.1) ns3::UdpHeader (length: 264 49153 > 9) Payload (size=256)
+ 10.0023 /NodeList/8/DeviceList/0/$ns3::PointToPointNetDevice/TxQueue/Enqueue ns3::PppHeader (Point-to-Point Protocol: IP (0x0021)) ns3::Ipv4Header (tos 0x0 DSCP Default ECN Not-ECT ttl 62 id 16 protocol 17 offset (bytes) 0 flags [none] length: 284 10.1.1.1 > 10.1.5.1) ns3::UdpHeader (length: 264 49153 > 9) Payload (size=256)
- 10.0023 /NodeList/8/DeviceList/0/$ns3::PointToPointNetDevice/TxQueue/Dequeue ns3::PppHeader (Point-to-Point Protocol: IP (0x0021)) ns3::Ipv4Header (tos 0x0 DSCP Default ECN Not-ECT ttl 62 id 16 protocol 17 offset (bytes) 0 flags [none] length: 284 10.1.1.1 > 10.1.5.1) ns3::UdpHeader (length: 264 49153 > 9) Payload (size=256)
r 10.0036 /NodeList/4/DeviceList/0/$ns3::PointToPointNetDevice/MacRx ns3::PppHeader (Point-to-Point Protocol: IP (0x0021)) ns3::Ipv4Header (tos 0x0 DSCP Default ECN Not-ECT ttl 62 id 16 protocol 17 offset (bytes) 0 flags [none] length: 284 10.1.1.1 > 10.1.5.1) ns3::UdpHeader (length: 264 49153 > 9) Payload (size=256)
+ 10.0036 /NodeList/4/DeviceList/0/$ns3::PointToPointNetDevice/TxQueue/Enqueue ns3::PppHeader (Point-to-Point Protocol: IP (0x0021)) ns3::Ipv4Header (tos 0x0 DSCP Default ECN Not-ECT ttl 64 id 0 protocol 17 offset (bytes) 0 flags [none] length: 284 10.1.5.1 > 10.1.1.1) ns3::UdpHeader (length: 264 9 > 49153) Payload (size=256)
- 10.0036 /NodeList/4/DeviceList/0/$ns3::PointToPointNetDevice/TxQueue/Dequeue ns3::PppHeader (Point-to-Point Protocol: IP (0x0021)) ns3::Ipv4Header (tos 0x0 DSCP Default ECN Not-ECT ttl 64 id 0 protocol 17 offset (bytes) 0 flags [none] length: 284 10.1.5.1 > 10.1.1.1) ns3::UdpHeader (length: 264 9 > 49153) Payload (size=256)
r 10.0048 /NodeList/8/DeviceList/0/$ns3::PointToPointNetDevice/MacRx ns3::PppHeader (Point-to-Point Protocol: IP (0x0021)) ns3::Ipv4Header (tos 0x0 DSCP Default ECN Not-ECT ttl 64 id 0 protocol 17 offset (bytes) 0 flags [none] length: 284 10.1.5.1 > 10.1.1.1) ns3::UdpHeader (length: 264 9 > 49153) Payload (size=256)
+ 10.0048 /NodeList/8/DeviceList/2/$ns3::PointToPointNetDevice/TxQueue/Enqueue ns3::PppHeader (Point-to-Point Protocol: IP (0x0021)) ns3::Ipv4Header (tos 0x0 DSCP Default ECN Not-ECT ttl 63 id 0 protocol 17 offset (bytes) 0 flags [none] length: 284 10.1.5.1 > 10.1.1.1) ns3::UdpHeader (length: 264 9 > 49153) Payload (size=256)
- 10.0048 /NodeList/8/DeviceList/2/$ns3::PointToPointNetDevice/TxQueue/Dequeue ns3::PppHeader (Point-to-Point Protocol: IP (0x0021)) ns3::Ipv4Header (tos 0x0 DSCP Default ECN Not-ECT ttl 63 id 0 protocol 17 offset (bytes) 0 flags [none] length: 284 10.1.5.1 > 10.1.1.1) ns3::UdpHeader (length: 264 9 > 49153) Payload (size=256)
r 10.0059 /NodeList/7/DeviceList/2/$ns3::PointToPointNetDevice/MacRx ns3::PppHeader (Point-to-Point Protocol: IP (0x0021)) ns3::Ipv4Header (tos 0x0 DSCP Default ECN Not-ECT ttl 63 id 0 protocol 17 offset (bytes) 0 flags [none] length: 284 10.1.5.1 > 10.1.1.1) ns3::UdpHeader (length: 264 9 > 49153) Payload (size=256)
+ 10.0059 /NodeList/7/DeviceList/0/$ns3::PointToPointNetDevice/TxQueue/Enqueue ns3::PppHeader (Point-to-Point Protocol: IP (0x0021)) ns3::Ipv4Header (tos 0x0 DSCP Default ECN Not-ECT ttl 62 id 0 protocol 17 offset (bytes) 0 flags [none] length: 284 10.1.5.1 > 10.1.1.1) ns3::UdpHeader (length: 264 9 > 49153) Payload (size=256)
- 10.0059 /NodeList/7/DeviceList/0/$ns3::PointToPointNetDevice/TxQueue/Dequeue ns3::PppHeader (Point-to-Point Protocol: IP (0x0021)) ns3::Ipv4Header (tos 0x0 DSCP Default ECN Not-ECT ttl 62 id 0 protocol 17 offset (bytes) 0 flags [none] length: 284 10.1.5.1 > 10.1.1.1) ns3::UdpHeader (length: 264 9 > 49153) Payload (size=256)
r 10.0071 /NodeList/0/DeviceList/0/$ns3::PointToPointNetDevice/MacRx ns3::PppHeader (Point-to-Point Protocol: IP (0x0021)) ns3::Ipv4Header (tos 0x0 DSCP Default ECN Not-ECT ttl 62 id 0 protocol 17 offset (bytes) 0 flags [none] length: 284 10.1.5.1 > 10.1.1.1) ns3::UdpHeader (length: 264 9 > 49153) Payload (size=256)
+ 10.5 /NodeList/0/DeviceList/0/$ns3::PointToPointNetDevice/TxQueue/Enqueue ns3::PppHeader (Point-to-Point Protocol: IP (0x0021)) ns3::Ipv4Header (tos 0x0 DSCP Default ECN Not-ECT ttl 64 id 17 protocol 17 offset (bytes) 0 flags [none] length: 284 10.1.1.1 > 10.1.5.1) ns3::UdpHeader (length: 264 49153 > 9) Payload (size=256)
- 10.5 /NodeList/0/DeviceList/0/$ns3::PointToPointNetDevice/TxQueue/Dequeue ns3::PppHeader (Point-to-Point Protocol: IP (0x0021)) ns3::Ipv4Header (tos 0x0 DSCP Default ECN Not-ECT ttl 64 id 17 protocol 17 offset (bytes) 0 flags [none] length: 284 10.1.1.1 > 10.1.5.1) ns3::UdpHeader (length: 264 49153 > 9) Payload (size=256)
d 10.5012 /NodeList/7/DeviceList/0/$ns3::PointToPointNetDevice/PhyRxDrop ns3::PppHeader (Point-to-Point Protocol: IP (0x0021)) ns3::Ipv4Header (tos 0x0 DSCP Default ECN Not-ECT ttl 64 id 17 protocol 17 offset (bytes) 0 flags [none] length: 284 10.1.1.1 > 10.1.5.1) ns3::UdpHeader (length: 264 49153 > 9) Payload (size=256)
+ 11 /NodeList/0/DeviceList/0/$ns3::PointToPointNetDevice/TxQueue/Enqueue ns3::PppHeader (Point-to-Point Protocol: IP (0x0021)) ns3::Ipv4Header (tos 0x0 DSCP Default ECN Not-ECT ttl 64 id 18 protocol 17 offset (bytes) 0 flags [none] length: 284 10.1.1.1 > 10.1.5.1) ns3::UdpHeader (length: 264 49153 > 9) Payload (size=256)
- 11 /NodeList/0/DeviceList/0/$ns3::PointToPointNetDevice/TxQueue/Dequeue ns3::PppHeader (Point-to-Point Protocol: IP (0x0021)) ns3::Ipv4Header (tos 0x0 DSCP Default ECN Not-ECT ttl 64 id 18 protocol 17 offset (bytes) 0 flags [none] length: 284 10.1.1.1 > 10.1.5.1) ns3::UdpHeader (length: 264 49153 > 9) Payload (size=256)
d 11.0012 /NodeList/7/DeviceList/0/$ns3::PointToPointNetDevice/PhyRxDrop ns3::PppHeader (Point-to-Point Protocol: IP (0x0021)) ns3::Ipv4Header (tos 0x0 DSCP Default ECN Not-ECT ttl 64 id 18 protocol 17 offset (bytes) 0 flags [none] length: 284 10.1.1.1 > 10.1.5.1) ns3::UdpHeader (length: 264 49153 > 9) Payload (size=256)
+ 11.5 /NodeList/0/DeviceList/0/$ns3::PointToPointNetDevice/TxQueue/Enqueue ns3::PppHeader (Point-to-Point Protocol: IP (0x0021)) ns3::Ipv4Header (tos 0x0 DSCP Default ECN Not-ECT ttl 64 id 19 protocol 17 offset (bytes) 0 flags [none] length: 284 10.1.1.1 > 10.1.5.1) ns3::UdpHeader (length: 264 49153 > 9) Payload (size=256)
- 11.5 /NodeList/0/DeviceList/0/$ns3::PointToPointNetDevice/TxQueue/Dequeue ns3::PppHeader (Point-to-Point Protocol: IP (0x0021)) ns3::Ipv4Header (tos 0x0 DSCP Default ECN Not-ECT ttl 64 id 19 protocol 17 offset (bytes) 0 flags [none] length: 284 10.1.1.1 > 10.1.5.1) ns3::UdpHeader (length: 264 49153 > 9) Payload (size=256)
d 11.5012 /NodeList/7/DeviceList/0/$ns3::PointToPointNetDevice/PhyRxDrop ns3::PppHeader (Point-to-Point Protocol: IP (0x0021)) ns3::Ipv4Header (tos 0x0 DSCP Default ECN Not-ECT ttl 64 id 19 protocol 17 offset (bytes) 0 flags [none] length: 284 10.1.1.1 > 10.1.5.1) ns3::UdpHeader (length: 264 49153 > 9) Payload (size=256)
+ 12 /NodeList/0/DeviceList/0/$ns3::PointToPointNetDevice/TxQueue/Enqueue ns3::PppHeader (Point-to-Point Protocol: IP (0x0021)) ns3::Ipv4Header (tos 0x0 DSCP Default ECN Not-ECT ttl 64 id 20 protocol 17 offset (bytes) 0 flags [none] length: 284 10.1.1.1 > 10.1.5.1) ns3::UdpHeader (length: 264 49153 > 9) Payload (size=256)
- 12 /NodeList/0/DeviceList/0/$ns3::PointToPointNetDevice/TxQueue/Dequeue ns3::PppHeader (Point-to-Point Protocol: IP (0x0021)) ns3::Ipv4Header (tos 0x0 DSCP Default ECN Not-ECT ttl 64 id 20 protocol 17 offset (bytes) 0 flags [none] length: 284 10.1.1.1 > 10.1.5.1) ns3::UdpHeader (length: 264 49153 > 9) Payload (size=256)
d 12.0012 /NodeList/7/DeviceList/0/$ns3::PointToPointNetDevice/PhyRxDrop ns3::PppHeader (Point-to-Point Protocol: IP (0x0021)) ns3::Ipv4Header (tos 0x0 DSCP Default ECN Not-ECT ttl 64 id 20 protocol 17 offset (bytes) 0 flags [none] length: 284 10.1.1.1 > 10.1.5.1) ns3::UdpHeader (length: 264 49153 > 9) Payload (size=256)
+ 12.5 /NodeList/0/DeviceList/0/$ns3::PointToPointNetDevice/TxQueue/Enqueue ns3::PppHeader (Point-to-Point Protocol: IP (0x0021)) ns3::Ipv4Header (tos 0x0 DSCP Default ECN Not-ECT ttl 64 id 21 protocol 17 offset (bytes) 0 flags [none] length: 284 10.1.1.1 > 10.1.5.1) ns3::UdpHeader (length: 264 49153 > 9) Payload (size=256)
- 12.5 /NodeList/0/DeviceList/0/$ns3::PointToPointNetDevice/TxQueue/Dequeue ns3::PppHeader (Point-to-Point Protocol: IP (0x0021)) ns3::Ipv4Header (tos 0x0 DSCP Default ECN Not-ECT ttl 64 id 21 protocol 17 offset (bytes) 0 flags [none] length: 284 10.1.1.1 > 10.1.5.1) ns3::UdpHeader (length: 264 49153 > 9) Payload (size=256)
d 12.5012 /NodeList/7/DeviceList/0/$ns3::PointToPointNetDevice/PhyRxDrop ns3::PppHeader (Point-to-Point Protocol: IP (0x0021)) ns3::Ipv4Header (tos 0x0 DSCP Default ECN Not-ECT ttl 64 id 21 protocol 17 offset (bytes) 0 flags [none] length: 284 10.1.1.1 > 10.1.5.1) ns3::UdpHeader (length: 264 49153 > 9) Payload (size=256)
+ 13 /NodeList/0/DeviceList/0/$ns3::PointToPointNetDevice/TxQueue/Enqueue ns3::PppHeader (Point-to-Point Protocol: IP (0x0021)) ns3::Ipv4Header (tos 0x0 DSCP Default ECN Not-ECT ttl 64 id 22 protocol 17 offset (bytes) 0 flags [none] length: 284 10.1.1.1 > 10.1.5.1) ns3::UdpHeader (length: 264 49153 > 9) Payload (size=256)
- 13 /NodeList/0/DeviceList/0/$ns3::PointToPointNetDevice/TxQueue/Dequeue ns3::PppHeader (Point-to-Point Protocol: IP (0x0021)) ns3::Ipv4Header (tos 0x0 DSCP Default ECN Not-ECT ttl 64 id 22 protocol 17 offset (bytes) 0 flags [none] length: 284 10.1.1.1 > 10.1.5.1) ns3::UdpHeader (length: 264 49153 > 9) Payload (size=256)
d 13.0012 /NodeList/7/DeviceList/0/$ns3::PointToPointNetDevice/PhyRxDrop ns3::PppHeader (Point-to-Point Protocol: IP (0x0021)) ns3::Ipv4Header (tos 0x0 DSCP Default ECN Not-ECT ttl 64 id 22 protocol 17 offset (bytes) 0 flags [none] length: 284 10.1.1.1 > 10.1.5.1) ns3::UdpHeader (length: 264 49153 > 9) Payload (size=256)
+ 13.5 /NodeList/0/DeviceList/0/$ns3::PointToPointNetDevice/TxQueue/Enqueue ns3::PppHeader (Point-to-Point Protocol: IP (0x0021)) ns3::Ipv4Header (tos 0x0 DSCP Default ECN Not-ECT ttl 64 id 23 protocol 17 offset (bytes) 0 flags [none] length: 284 10.1.1.1 > 10.1.5.1) ns3::UdpHeader (length: 264 49153 > 9) Payload (size=256)
- 13.5 /NodeList/0/DeviceList/0/$ns3::PointToPointNetDevice/TxQueue/Dequeue ns3::PppHeader (Point-to-Point Protocol: IP (0x0021)) ns3::Ipv4Header (tos 0x0 DSCP Default ECN Not-ECT ttl 64 id 23 protocol 17 offset (bytes) 0 flags [none] length: 284 10.1.1.1 > 10.1.5.1) ns3::UdpHeader (length: 264 49153 > 9) Payload (size=256)
d 13.5012 /NodeList/7/DeviceList/0/$ns3::PointToPointNetDevice/PhyRxDrop ns3::PppHeader (Point-to-Point Protocol: IP (0x0021)) ns3::Ipv4Header (tos 0x0 DSCP Default ECN Not-ECT ttl 64 id 23 protocol 17 offset (bytes) 0 flags [none] length: 284 10.1.1.1 > 10.1.5.1) ns3::UdpHeader (length: 264 49153 > 9) Payload (size=256)
+ 14 /NodeList/0/DeviceList/0/$ns3::PointToPointNetDevice/TxQueue/Enqueue ns3::PppHeader (Point-to-Point Protocol: IP (0x0021)) ns3::Ipv4Header (tos 0x0 DSCP Default ECN Not-ECT ttl 64 id 24 protocol 17 offset (bytes) 0 flags [none] length: 284 10.1.1.1 > 10.1.5.1) ns3::UdpHeader (length: 264 49153 > 9) Payload (size=256)
- 14 /NodeList/0/DeviceList/0/$ns3::PointToPointNetDevice/TxQueue/Dequeue ns3::PppHeader (Point-to-Point Protocol: IP (0x0021)) ns3::Ipv4Header (tos 0x0 DSCP Default ECN Not-ECT ttl 64 id 24 protocol 17 offset (bytes) 0 flags [none] length: 284 10.1.1.1 > 10.1.5.1) ns3::UdpHeader (length: 264 49153 > 9) Payload (size=256)